21   
Iteration 0 Energy  26.69581317
C        2.9470409587    0.9162031775    0.9810248352
C        2.7090107838    0.5462411280   -0.2795209597
N        1.3647620237    0.2037541287   -0.6431444240
C        1.0083345016   -0.6288842412   -1.6512285613
C       -0.2811812532   -1.0901594856   -1.4567785533
N       -0.7516406539   -0.3925001514   -0.4003400070
C       -1.9960514335   -0.6430390754    0.3182502915
C       -2.7438346872    0.6534103720    0.5919954460
C        0.2683162832    0.3097198226    0.1472793419
I        0.0000000000    0.0000000000    0.0000000000
H        2.7867679032    1.9090697551    1.3507062408
H        2.8253430010    0.1115108625    1.7077604093
H        3.5235986915   -0.0145624647   -0.7428886714
H        1.6698846457   -0.9617075228   -2.4519932384
H       -0.6790334236   -2.0312288643   -1.8409029672
H       -1.6913122533   -1.0574654570    1.3115693421
H       -2.6256179641   -1.3959693501   -0.1738536160
H       -2.0798075069    1.4834662724    0.2429854168
H       -3.7338656740    0.6768632255    0.0962446926
H       -2.8676040614    0.8352613108    1.6881584736
H        0.3468901083    0.5700165733    1.2046764980
21   
Iteration 1 Energy  4.67601673
C        3.0283325272    0.9214858540    0.9806927231
C        2.7539283333    0.5354447581   -0.2685224265
N        1.3950769798    0.2160963373   -0.6154800130
C        0.9934112539   -0.6455429357   -1.6381836364
C       -0.3097703807   -1.1102778551   -1.4712032595
N       -0.7857725698   -0.3991101074   -0.4043881764
C       -2.0537993478   -0.6580575778    0.2853130728
C       -2.8172137646    0.6270347811    0.5656788004
C        0.4456268612    0.5014984947    0.2630545629
I       -0.0622576526   -0.0361486972   -0.0143092818
H        2.9031768862    1.9227432707    1.3405323633
H        2.9023394174    0.1307555621    1.7217943833
H        3.5473709516   -0.0539009702   -0.7333306970
H        1.6631191847   -0.9858840959   -2.4293621216
H       -0.7194637922   -2.0464347620   -1.8555420996
H       -1.7619752130   -1.0814820001    1.2791968441
H       -2.6758207209   -1.4042510062   -0.2236194948
H       -2.1566004002    1.4680950957    0.2393907836
H       -3.8002035771    0.6493693415    0.0573360108
H       -2.9569200435    0.7889699572    1.6636492693
H        0.4674150565    0.6595965711    1.2573023826
21   
Iteration 2 Energy  2.48518547
C        3.0984583441    0.9818047154    1.0242057062
C        2.8747626908    0.5683298745   -0.2397506926
N        1.5268132156    0.2063248496   -0.6530583950
C        0.9723109198   -0.6893724586   -1.6840970502
C       -0.4156342032   -1.1522891611   -1.5186106934
N       -0.8338364805   -0.4262058894   -0.4282393147
C       -2.1132807957   -0.6707692543    0.2657424051
C       -2.8657371961    0.6234122568    0.5746233013
C        0.5263168016    0.4841940689    0.2765231064
I       -0.0877556472   -0.0748818606   -0.0462485800
H        2.9316431320    1.9916593467    1.3477080950
H        2.9675997785    0.2130523305    1.7873975567
H        3.6944393398   -0.0137381349   -0.6705062972
H        1.6201124942   -1.0524673358   -2.4932900972
H       -0.8823581296   -2.0739334170   -1.8925627491
H       -1.8280937663   -1.1184625930    1.2527633902
H       -2.7494356560   -1.4005632585   -0.2560828847
H       -2.2033154883    1.4638481128    0.2638724271
H       -3.8485676366    0.6679121074    0.0718521082
H       -3.0009380292    0.7653942834    1.6718255823
H        0.6164963016    0.7067514331    1.3459330650
21   
Iteration 3 Energy  0.14270242
C        3.3298670099    0.8761453882    0.9508021944
C        2.9992456121    0.4479098688   -0.3000164093
N        1.5985222012    0.1681697456   -0.6504655078
C        0.9814029368   -0.7212330414   -1.7318605945
C       -0.4910992623   -1.1269788740   -1.5461982518
N       -0.9474218985   -0.3885791931   -0.4160463046
C       -2.2267130340   -0.5950842135    0.2964989720
C       -2.9836183431    0.6908117324    0.6413652944
C        0.6762134873    0.5412513167    0.3923140506
I       -0.1199391015   -0.0619511157   -0.0090487913
H        3.2079234938    1.9220989333    1.1908071759
H        3.2120085069    0.1804619155    1.7764515739
H        3.7422898693   -0.1830328097   -0.7844423336
H        1.6143381900   -1.1026872870   -2.5529501977
H       -1.0092724807   -2.0279484001   -1.9328852430
H       -1.9520107240   -1.0808848101    1.2699753763
H       -2.8870091136   -1.2918297704   -0.2508410009
H       -2.3379887444    1.5404203886    0.3550501664
H       -3.9601530016    0.7336377756    0.1310426168
H       -3.1288837427    0.8041106128    1.7309763042
H        0.6822981286    0.6751918536    1.4394708989
21   
Iteration 4 Energy -1.43338485
C        3.5914533739    0.8809800426    0.8828528656
C        3.1541472131    0.4456646785   -0.3330209859
N        1.7233536296    0.2082676149   -0.6059190252
C        0.9546217597   -0.7099589317   -1.6719971057
C       -0.5909863532   -1.1919781884   -1.6083793910
N       -0.9842702845   -0.3379522068   -0.3831965303
C       -2.4068344318   -0.6286116943    0.2938591971
C       -3.1740677545    0.6597456168    0.6368109127
C        0.8643428244    0.6634532563    0.5052690954
I       -0.0649194611   -0.0192969124    0.0616888224
H        3.5424325846    1.9289474290    1.1415662816
H        3.5155366424    0.2061337637    1.7268609245
H        3.8282078809   -0.2220850287   -0.8638015686
H        1.5766826623   -1.1096295924   -2.4953919164
H       -1.1468045490   -2.0703783198   -2.0053634719
H       -2.1853459209   -1.1522429614    1.2608826158
H       -3.0306923448   -1.3122810511   -0.3115689591
H       -2.5173085580    1.5118490998    0.4082231605
H       -4.1192095840    0.7296328127    0.0799083735
H       -3.3783629895    0.7466780319    1.7137513498
H        0.8480236498    0.7730625566    1.5669653445
21   
Iteration 5 Energy -2.72555134
C        3.8577442582    0.8582097049    0.7768023605
C        3.2724192700    0.4834879078   -0.3920098921
N        1.8123850524    0.3552907441   -0.5810677968
C        1.0266897612   -0.6866957677   -1.6990507036
C       -0.6483218096   -1.1228001582   -1.5545118184
N       -1.1854678162   -0.0206681450   -0.5074916213
C       -2.4202658818   -0.6611769991    0.2810620905
C       -3.3514449589    0.4986398493    0.6779487085
C        0.9351966692    0.8473518151    0.6160574429
I       -0.1084970559    0.0245196201    0.1584289194
H        3.7637172244    1.9057835936    1.0169585792
H        3.9237486081    0.2173351238    1.6481482078
H        3.7898798542   -0.2041073058   -1.0591364110
H        1.6559680844   -1.1339312075   -2.4907218026
H       -1.2851254448   -1.9859516823   -1.8792614473
H       -2.1506724800   -1.2742407506    1.1598026520
H       -2.9487466697   -1.3484512195   -0.4235980719
H       -2.8444217443    1.4459573203    0.5001954840
H       -4.2789405712    0.5034677640    0.1095627582
H       -3.6008338236    0.4975814065    1.7378418648
H        0.7849894631    0.8003984023    1.9040404865
21   
Iteration 6 Energy -2.75109848
C        3.9161706423    0.8949021792    0.6735011062
C        3.3086338157    0.4869570086   -0.4594395792
N        1.8661259956    0.4173765357   -0.5964906174
C        0.8382189927   -0.6261564622   -1.5448751144
C       -0.8789641355   -0.9595037323   -1.3479454495
N       -1.3064207843    0.4189366550   -0.5609035919
C       -2.2658747588   -0.6638728121    0.1977007706
C       -3.4116371331    0.2899006939    0.6078489169
C        1.1155745271    0.9473422231    0.6017819726
I       -0.1549133395    0.0913890600    0.2699354810
H        4.0289743039    1.8671087818    1.1342992646
H        4.0628112851    0.1742961249    1.4644797786
H        3.7780430619   -0.2327338082   -1.1230546931
H        1.3912803776   -1.1777514484   -2.3163826599
H       -1.6297356241   -1.7624106268   -1.5065048693
H       -1.9298486758   -1.3487622742    1.0054211897
H       -2.5909860121   -1.3474362121   -0.6307279087
H       -3.0792235479    1.3264680917    0.5309903688
H       -4.2891791081    0.1934122663   -0.0340887376
H       -3.7343779575    0.1486248843    1.6389305949
H        0.9653280641    0.8619128879    1.9955237665
21   
Iteration 7 Energy -2.99897479
C        3.9265596670    0.8724393157    0.6407675728
C        3.3242703996    0.4894381300   -0.4909404650
N        1.9026943264    0.4524313488   -0.6179675820
C        0.8430947567   -0.4917755922   -1.5414220057
C       -0.8155912302   -0.8034216923   -1.5123004285
N       -1.3562894533    0.5377530883   -0.6767672238
C       -2.2513023789   -0.7242666987    0.3179999908
C       -3.4625493442    0.1869281090    0.6838638717
C        1.2349972775    0.9404824167    0.4836331612
I       -0.2507721331    0.0024237621    0.3635391869
H        3.8632620534    1.8989105213    0.9842843489
H        4.1533991319    0.2073438139    1.4648416716
H        3.7922609701   -0.2092271000   -1.1741813730
H        1.4069339279   -1.0244737913   -2.3101722534
H       -1.5176505880   -1.6136246381   -1.7517019418
H       -1.8696610934   -1.3754644431    1.1629972452
H       -2.6067142193   -1.4222095663   -0.4419269147
H       -3.2005048522    1.2392675324    0.5357628542
H       -4.3341633849   -0.0008719066    0.0466311200
H       -3.7787625396    0.0803414085    1.7236865887
H        0.9964886960    0.7575759979    2.1093725652
21   
Iteration 8 Energy -3.11382751
C        3.9911880806    0.8554239079    0.5129878035
C        3.3171295679    0.5072800397   -0.5956452177
N        1.8789116458    0.5406109965   -0.6778211271
C        0.8849516462   -0.3433982316   -1.5802866191
C       -0.6796059111   -0.6516718199   -1.6664782826
N       -1.3835356413    0.2646463381   -0.6647653429
C       -2.3678267874   -0.7746305697    0.4931243860
C       -3.5850054423    0.1487194170    0.7792674792
C        1.2128010206    1.1438187258    0.3545156501
I       -0.2461425948   -0.0858070800    0.4708133322
H        4.0198128342    1.7873238961    1.0599588231
H        4.3937674530    0.0839073789    1.1563367152
H        3.7523439302   -0.1855327906   -1.3071459012
H        1.4473869429   -0.8666275303   -2.3594070235
H       -1.2669619855   -1.5262020333   -1.9565695147
H       -2.0236291948   -1.3313115286    1.4355020308
H       -2.6554643707   -1.5704098635   -0.1984888867
H       -3.3330772998    1.1844984935    0.5366694075
H       -4.4566362056   -0.1054296931    0.1655661141
H       -3.8923136283    0.1178123538    1.8270370902
H        0.9919059295    0.8069796094    2.2148290731
21   
Iteration 9 Energy -3.26997595
C        4.0465646711    0.6236559327    0.2969166553
C        3.2119855935    0.4378859284   -0.7381814047
N        1.7777701526    0.7075556687   -0.6752048186
C        0.8709369122   -0.1976781172   -1.4630522452
C       -0.6123835997   -0.4339372907   -1.5171324150
N       -1.3286974824    0.0834047128   -0.5332058151
C       -2.3613645394   -0.7385737835    0.5761674156
C       -3.5978951221    0.1525572073    0.7050842677
C        1.0794621533    1.5682574516    0.2154470743
I       -0.0666858225   -0.2709736806    0.8357992686
H        3.7463700346    1.5054765694    0.8352000973
H        4.7031692032   -0.0950060373    0.7761131825
H        3.4874188189   -0.2725162411   -1.5045922577
H        1.3734021018   -0.7682070333   -2.2555676587
H       -1.0068423236   -1.4245201889   -1.7519932057
H       -2.1389474349   -1.2361289419    1.5728037719
H       -2.4929845145   -1.6050843970   -0.1024887355
H       -3.3457886072    1.1835233976    0.4717848245
H       -4.3970142247   -0.1439357790    0.0265883161
H       -3.9934855834    0.1134699940    1.7238856187
H        1.0450096025    0.8107746439    2.5056280531
21   
Iteration 10 Energy -3.30529889
C        3.9500356650    0.7292958136    0.2796673218
C        3.0639842590    0.5840586896   -0.7154626868
N        1.6233449649    0.7858804364   -0.5527697748
C        0.8883891630   -0.2534421852   -1.2640582992
C       -0.5537971154   -0.5444630130   -1.3841614017
N       -1.3653459839   -0.1157398420   -0.4119616185
C       -2.4142465513   -0.7179328102    0.4546103209
C       -3.5388482396    0.3100141021    0.5323123856
C        0.9077452376    1.4211426346    0.2734283387
I       -0.0055625608   -0.6605915260    1.0184511797
H        3.8732388711    1.2795472150    1.2015902358
H        4.8693069061    0.1593756686    0.2368385674
H        3.3506233274    0.0035563012   -1.5759682268
H        1.4586987387   -0.7817242042   -2.0403362810
H       -0.7320823771   -1.6021985865   -1.6184746175
H       -2.3129328949   -1.2544374874    1.4435281242
H       -2.6209123573   -1.5638851854   -0.2419544806
H       -3.1494227087    1.3128029877    0.3763961487
H       -4.3119882366    0.1354625841   -0.2126345449
H       -4.0180716381    0.2820654534    1.5158832454
H        1.0378435203    0.4912129695    2.6850760527
21   
Iteration 11 Energy -3.25863549
C        3.8479168991    0.7406515758    0.5224106712
C        3.1168938646    0.5715926447   -0.5770100534
N        1.6602755317    0.6574884985   -0.5713143801
C        1.1373342559   -0.5600698754   -1.3350850328
C       -0.4196181138   -0.8312923469   -1.5794230040
N       -1.5785670608   -0.1383746307   -0.4424212818
C       -2.5644748868   -0.6115986453    0.2763246860
C       -3.6140284276    0.4751484623    0.5645783373
C        0.8546346131    1.2805014159    0.4463696239
I       -0.0774412009   -0.6281008385    0.5711011448
H        3.8154001378    1.0088433981    1.5662354535
H        4.8924091422    0.6087245512    0.2993602904
H        3.5765556479    0.1435690666   -1.4468261283
H        1.8529166380   -1.1307726430   -1.9407718391
H       -0.4550930087   -1.9293354660   -1.7075668843
H       -2.3390645580   -1.1771311418    1.2242276533
H       -2.9980119287   -1.4162385227   -0.3706736201
H       -3.1787464550    1.4690872550    0.4351929962
H       -4.4815689451    0.3889525972   -0.0903068359
H       -3.9828831260    0.4269361832    1.5922331207
H        0.9351609704    0.6514184777    2.5633650718
21   
Iteration 12 Energy -3.31620925
C        3.8629711490    0.7831038878    0.5323262323
C        3.1556412167    0.5615101123   -0.5677646945
N        1.7041993686    0.5936416727   -0.5636777550
C        1.0498771642   -0.5563547763   -1.3415293323
C       -0.4871033319   -0.7660199627   -1.6166024723
N       -1.4670239415   -0.0949437852   -0.5239253976
C       -2.5325490227   -0.6449115976    0.2707584369
C       -3.5485297668    0.4796160511    0.5805821246
C        0.9712001432    1.1857927385    0.4392749044
I       -0.0756048211   -0.6826524337    0.6142714682
H        3.4089678882    1.1044209415    1.4590155929
H        4.9368608702    0.7061158920    0.5659332978
H        3.6286632403    0.1523661507   -1.4429657576
H        1.7307403089   -1.1320114876   -1.9839332263
H       -0.6367088627   -1.8381900309   -1.7985971711
H       -2.3079799485   -1.2378416838    1.2104874062
H       -2.9739201540   -1.4270007077   -0.3991144889
H       -3.0756822148    1.4566588598    0.4624810299
H       -4.4176766562    0.4424498859   -0.0793032914
H       -3.9210181611    0.4314662705    1.6059616600
H        0.9946755214    0.4827840184    2.5763214232
21   
Iteration 13 Energy -3.33860705
C        3.7800828679    0.8103286249    0.5305754121
C        3.0844935162    0.5343680304   -0.5415520338
N        1.6435729190    0.5232065413   -0.5295692936
C        0.9761856309   -0.6131461818   -1.3013183682
C       -0.5313029198   -0.6804163503   -1.5768364454
N       -1.3441670454   -0.1274650482   -0.5577104214
C       -2.4501988770   -0.6530911938    0.2289992339
C       -3.4039578214    0.5268428265    0.5305945404
C        0.9218263743    1.1853806376    0.4730133576
I        0.0094371744   -0.8580076558    0.7371262328
H        3.1847903397    1.0726960293    1.3767371213
H        4.8483378515    0.8347584936    0.5965568095
H        3.5714083907    0.1792675033   -1.4304760813
H        1.6225741027   -1.2115731939   -1.9573422629
H       -0.8027508563   -1.6991922769   -1.8319411748
H       -2.2516270252   -1.2607070402    1.1750553039
H       -2.9203655512   -1.3937520839   -0.4483350475
H       -2.8698855021    1.4718411246    0.4426794112
H       -4.2493232976    0.5604212329   -0.1584264958
H       -3.8074614171    0.4731218504    1.5444257013
H        0.9883311350    0.3251181459    2.6977444901
21   
Iteration 14 Energy -3.34829225
C        3.7188690201    0.8343599881    0.5865648381
C        3.0715130223    0.5011721384   -0.5037604360
N        1.6385708231    0.4486955262   -0.5501262956
C        0.9707918699   -0.6926245976   -1.3407512218
C       -0.5463248696   -0.7049522695   -1.6381739115
N       -1.3360624045   -0.0927356983   -0.6060952261
C       -2.4448442684   -0.6408931889    0.2017230501
C       -3.3744500210    0.5445287423    0.5564896969
C        0.9265358439    1.1692150356    0.4872064692
I        0.0043162639   -0.8285618187    0.6589683781
H        3.2530789376    1.1373404396    1.5031863566
H        4.7918094137    0.8191756438    0.6004359691
H        3.5967777324    0.1744127403   -1.3825196583
H        1.6197032468   -1.3317350376   -1.9542553336
H       -0.9063768506   -1.6983804944   -1.9020026428
H       -2.1962504507   -1.2462566034    1.1349202807
H       -2.9536881364   -1.3717477247   -0.4558715223
H       -2.8301255165    1.4844675183    0.4656164937
H       -4.2373693221    0.6023085250   -0.1094159438
H       -3.7492537442    0.4835915806    1.5794495531
H        0.9827793996    0.4086195708    2.6684110955
21   
Iteration 15 Energy -3.35392247
C        3.6687854576    0.7862035835    0.6232695363
C        3.0218367962    0.4779043053   -0.4796074314
N        1.5880455413    0.4492506807   -0.5541857216
C        0.9918225963   -0.7426178963   -1.3369475898
C       -0.5216612624   -0.7409087689   -1.6735204943
N       -1.3318774818   -0.0880264739   -0.6398116947
C       -2.4253801523   -0.6107668759    0.1530064009
C       -3.3170821223    0.5847565267    0.5598529318
C        0.8757106340    1.1750113992    0.4879947409
I        0.0248307220   -0.8469745611    0.6140228037
H        3.1336847255    1.0404430206    1.5195096467
H        4.7413591862    0.7963228733    0.6758256779
H        3.5514564229    0.2008411011   -1.3732779933
H        1.6665118767   -1.4133916443   -1.8865740247
H       -0.9016948420   -1.7335978278   -1.9311474483
H       -2.1487625199   -1.2144035507    1.0830950777
H       -2.9618788551   -1.3435332136   -0.4854648606
H       -2.7490315743    1.5131441802    0.4872733923
H       -4.1875288943    0.6860470932   -0.0906077490
H       -3.6770400877    0.5045425943    1.5866186258
H        0.9578938227    0.5197534702    2.6606761631
21   
Iteration 16 Energy -3.35708541
C        3.6272260237    0.7067973195    0.6322328497
C        2.9627765672    0.4578626642   -0.4752174098
N        1.5253786235    0.4859683104   -0.5635761273
C        0.9814055747   -0.7444247149   -1.3303379934
C       -0.5156300247   -0.7523605718   -1.6899829212
N       -1.3077661471   -0.0636318227   -0.6857321539
C       -2.3870287409   -0.5944717627    0.1335514241
C       -3.2700346925    0.5944147132    0.5671063353
C        0.8249423230    1.2173186253    0.4588283755
I        0.0411555665   -0.8370568056    0.6095039247
H        3.1173338263    0.9379992520    1.5454993685
H        4.6986326075    0.6677931473    0.6674109584
H        3.4873485343    0.2233818996   -1.3834763572
H        1.6739318305   -1.4521139500   -1.8086691952
H       -0.9183917881   -1.7409574635   -1.9320392693
H       -2.0772878686   -1.1832009362    1.0704323189
H       -2.9324382012   -1.3439547372   -0.4786076279
H       -2.6984421918    1.5216603166    0.5071895328
H       -4.1396832909    0.7110405887   -0.0814716878
H       -3.6286183473    0.4984071383    1.5930146159
H        0.9351898055    0.6895288056    2.6443410284
21   
Iteration 17 Energy -3.35880000
C        3.5961314269    0.6755349409    0.6499277761
C        2.9446996690    0.4634368905   -0.4707748458
N        1.5042850050    0.4692796628   -0.5685086534
C        0.9588558724   -0.7518159867   -1.3502708730
C       -0.5251532440   -0.7678358584   -1.7096734185
N       -1.2954516397   -0.0471907826   -0.7181614214
C       -2.3630909031   -0.5750788219    0.1194665749
C       -3.2304678276    0.6119694641    0.5809127649
C        0.8174701574    1.1957344054    0.4381800887
I        0.0369730420   -0.8588592587    0.5941500449
H        3.0697297406    0.8553211500    1.5630184457
H        4.6668212106    0.6549084965    0.6936828515
H        3.4820358068    0.2826431783   -1.3838628182
H        1.6541196745   -1.4854719803   -1.7827506193
H       -0.9330760460   -1.7566522497   -1.9359362744
H       -2.0550941575   -1.1747894333    1.0599735714
H       -2.9224759827   -1.3189347708   -0.4849234523
H       -2.6453710104    1.5322069585    0.5541742750
H       -4.0917881625    0.7599269142   -0.0721862455
H       -3.6009435385    0.4892397008    1.6003206566
H        0.9317908960    0.7464273962    2.6232415614
21   
Iteration 18 Energy -3.36081228
C        3.5835937469    0.5722713186    0.6410113336
C        2.9346607751    0.4629731198   -0.4953991936
N        1.4894394521    0.4826731319   -0.5902526082
C        0.9395723842   -0.7188166961   -1.3969074063
C       -0.5387518400   -0.7768671575   -1.7163542423
N       -1.2956940202   -0.0162914858   -0.7461536071
C       -2.3319846643   -0.5491962623    0.1380287114
C       -3.2147857862    0.6196153938    0.6122371335
C        0.7996634131    1.2334279930    0.3836204086
I        0.0408636672   -0.8299600736    0.5820020195
H        3.0549146550    0.6925604010    1.5628581839
H        4.6541337874    0.5330122207    0.6906980027
H        3.4714910407    0.3363230036   -1.4182002138
H        1.6286766238   -1.4934038824   -1.7586603278
H       -0.9259895185   -1.7819737282   -1.8909781951
H       -2.0236692594   -1.1505830813    1.0901141366
H       -2.8920526619   -1.3053235142   -0.4479370919
H       -2.6348119993    1.5430916248    0.6262945305
H       -4.0611602516    0.7803986784   -0.0574108963
H       -3.6110123142    0.4640931274    1.6180978125
H        0.9329027594    0.9019758843    2.5732914990
21   
Iteration 19 Energy -3.36313166
C        3.5561674414    0.4410883101    0.6289813367
C        2.9318567109    0.4749608996   -0.5240320961
N        1.4880285738    0.4736262997   -0.6217903066
C        0.9214294112   -0.6907511309   -1.4764788033
C       -0.5638132370   -0.7943569475   -1.7242474190
N       -1.3057707757    0.0044732884   -0.7705824286
C       -2.2987947259   -0.5124412481    0.1635344832
C       -3.1812267600    0.6465734690    0.6619079109
C        0.7758749172    1.2695119115    0.3091239973
I        0.0561733464   -0.8075313897    0.5498079927
H        3.0045852232    0.4491639685    1.5464579048
H        4.6258835741    0.4081298962    0.7021612191
H        3.4783687357    0.4435196971   -1.4490189698
H        1.5878620113   -1.5210802852   -1.7349770069
H       -0.9237606203   -1.8181747478   -1.8300484670
H       -1.9884087217   -1.1231074010    1.1158179784
H       -2.8768523917   -1.2707466018   -0.4008937343
H       -2.5889796595    1.5587815740    0.7408565772
H       -4.0010012051    0.8504279332   -0.0290235573
H       -3.6179268826    0.4495262298    1.6435197910
H        0.9203050238    1.0684062909    2.4989235871
21   
Iteration 20 Energy -3.36501686
C        3.5225794412    0.2851440332    0.5962456558
C        2.9291318449    0.5010188029   -0.5527110715
N        1.4930509382    0.4881197773   -0.6579163194
C        0.9206694572   -0.6467413620   -1.5624037506
C       -0.5806226092   -0.8220033150   -1.7179845986
N       -1.3236309018    0.0020286949   -0.7822338595
C       -2.2770240374   -0.4855083873    0.2018759722
C       -3.1462261927    0.6763196146    0.7170055072
C        0.7426247912    1.3213305729    0.2192206685
I        0.0813028547   -0.7676663974    0.5171192185
H        2.9427620299    0.1620116792    1.4890933469
H        4.5897076322    0.2365416392    0.6952168237
H        3.4880459543    0.5829791034   -1.4668292652
H        1.5581062734   -1.5245870400   -1.6939599433
H       -0.9080700368   -1.8636738068   -1.7536239944
H       -1.9471688043   -1.0968552756    1.1445294064
H       -2.8790929499   -1.2479006141   -0.3346669498
H       -2.5311868652    1.5655214256    0.8592458014
H       -3.9307511982    0.9334573662    0.0034272827
H       -3.6290326950    0.4509167082    1.6699113272
H        0.8848250626    1.2495467967    2.4094387313
21   
Iteration 21 Energy -3.36625429
C        3.5137984473    0.2547001811    0.5902931109
C        2.9326819786    0.5210563560   -0.5553236982
N        1.5031873619    0.4923029177   -0.6712313932
C        0.9268858861   -0.6381781500   -1.5830026464
C       -0.5864271295   -0.8420497355   -1.7141912930
N       -1.3346864676   -0.0264531477   -0.7755905087
C       -2.2922946801   -0.4886761477    0.2127880333
C       -3.1272610173    0.6960920595    0.7297892119
C        0.7317820590    1.3236622498    0.1908927485
I        0.0908879073   -0.7681647331    0.5060425718
H        2.9253795144    0.0787316919    1.4692597208
H        4.5806044894    0.2143653160    0.6972397800
H        3.4996178134    0.6549293773   -1.4583612490
H        1.5582603220   -1.5231964562   -1.6854965668
H       -0.9083057131   -1.8878823416   -1.7425825606
H       -1.9502064923   -1.1023706995    1.1407029650
H       -2.9173467260   -1.2391821746   -0.3172744118
H       -2.4829853442    1.5607908592    0.8925308941
H       -3.8901162217    0.9902778251    0.0074364659
H       -3.6311846405    0.4756521795    1.6723553863
H        0.8577286424    1.2535925887    2.3937234286
21   
Iteration 22 Energy -3.36741385
C        3.4912375130    0.2238600487    0.5969135646
C        2.9257611148    0.5329950482   -0.5469936271
N        1.5020964220    0.5025273794   -0.6909389459
C        0.9352520675   -0.6432626194   -1.5913576434
C       -0.5924005713   -0.8704701661   -1.7204657510
N       -1.3440864996   -0.0606112624   -0.7810383053
C       -2.3163739443   -0.4986296654    0.2136999827
C       -3.0832363870    0.7230435638    0.7396625322
C        0.7139332381    1.3268560939    0.1599857005
I        0.0979852447   -0.7677950802    0.4889690579
H        2.8927166950   -0.0065342111    1.4556153763
H        4.5570420745    0.1951095735    0.7144484467
H        3.5076136331    0.7389883108   -1.4268132639
H        1.5668723381   -1.5309287517   -1.6631335156
H       -0.9207640054   -1.9156157340   -1.7519952475
H       -1.9483003587   -1.1148846053    1.1197338221
H       -2.9782290214   -1.2264273935   -0.3047312999
H       -2.3898844979    1.5436733433    0.9273347523
H       -3.8127471375    1.0771720596    0.0103024941
H       -3.6128572586    0.5154058907    1.6706867435
H        0.8083693302    1.2555281930    2.3801151160
21   
Iteration 23 Energy -3.36789364
C        3.4680959677    0.1909016858    0.5992980621
C        2.9131565377    0.5376254418   -0.5387684632
N        1.4904988818    0.5100939159   -0.7041828426
C        0.9379737874   -0.6520325940   -1.5926244422
C       -0.5926414640   -0.8901542359   -1.7255253330
N       -1.3454069225   -0.0786211855   -0.7895438521
C       -2.3235412823   -0.4969389367    0.2079124744
C       -3.0438218506    0.7451887842    0.7431691102
C        0.6970129444    1.3289287326    0.1401524131
I        0.1030381088   -0.7722046929    0.4820947579
H        2.8626048986   -0.0891793886    1.4378169630
H        4.5328442556    0.1751643181    0.7292294022
H        3.5047862393    0.8047410179   -1.3954805140
H        1.5720428562   -1.5397020420   -1.6388802272
H       -0.9206390018   -1.9344705977   -1.7585324583
H       -1.9529302145   -1.1213895689    1.1073632553
H       -3.0102535182   -1.2046134463   -0.3046219288
H       -2.3187998077    1.5286987347    0.9664500365
H       -3.7369541181    1.1489554755    0.0043320446
H       -3.6053349461    0.5395766855    1.6561231364
H        0.7682686378    1.2694319123    2.3742183952
21   
Iteration 24 Energy -3.36846705
C        3.4348749401    0.1333422469    0.6002932750
C        2.8992152799    0.5339444950   -0.5286994095
N        1.4774910902    0.5198441256   -0.7260426176
C        0.9395641252   -0.6641892818   -1.5934758660
C       -0.5913685841   -0.9082195907   -1.7334033878
N       -1.3431318339   -0.0904273153   -0.8036454160
C       -2.3255203894   -0.4884734568    0.2037992470
C       -2.9978906827    0.7724940775    0.7483648666
C        0.6856485011    1.3385723470    0.1143699847
I        0.1048048512   -0.7623901842    0.4758252115
H        2.8152919406   -0.2051438482    1.4057270285
H        4.4962413840    0.1281525261    0.7552901131
H        3.5054809104    0.8805287347   -1.3460356314
H        1.5784924431   -1.5500124709   -1.6133094653
H       -0.9187590064   -1.9510641430   -1.7690720074
H       -1.9564113026   -1.1269506277    1.0942836239
H       -3.0374439242   -1.1733691404   -0.3036028439
H       -2.2429956587    1.5063744456    1.0329925078
H       -3.6299340247    1.2386401943   -0.0082661842
H       -3.6147179159    0.5675164736    1.6254726242
H        0.7210678461    1.3008304085    2.3691343362
21   
Iteration 25 Energy -3.36912134
C        3.3973755071    0.0490762978    0.5917710223
C        2.8863055386    0.5261318856   -0.5183728549
N        1.4670177096    0.5276924351   -0.7529051132
C        0.9391725882   -0.6789651073   -1.5933848223
C       -0.5875683808   -0.9220073599   -1.7393861831
N       -1.3377304552   -0.0944624763   -0.8173319958
C       -2.3201806356   -0.4674222617    0.2009100451
C       -2.9511677095    0.8072626980    0.7557827501
C        0.6807196941    1.3517943000    0.0852018453
I        0.1045023029   -0.7452097695    0.4745219651
H        2.7634279680   -0.3668822427    1.3482860199
H        4.4529340737    0.0579330332    0.7831698382