30   
Iteration 0 Energy -45.82867182
C        4.7888448448   -0.7255401733    0.5136318472
C        4.7970572041    0.6764472181   -0.0772218620
C        3.4493463868    1.0761011945   -0.6700262453
O        2.4669500936    1.1938359906    0.3703824755
C        1.5047856210    0.2415824304    0.3923334553
O        1.4104260270   -0.7390653925   -0.3242732965
C        0.5936374670    0.5543918647    1.5083625150
C       -0.7354091061    0.4110995873    1.4299157824
C       -1.4370137210    0.0763454493    0.1775015467
O       -1.1785834206    0.5541862476   -0.9130657652
O       -2.4323194669   -0.7904182307    0.4823509810
C       -3.2202509828   -1.2351983600   -0.6317565199
C       -4.3620530312   -0.2645342748   -0.9220082938
C       -5.3034871188   -0.1065806983    0.2633289679
H        4.4937596614   -1.4657549123   -0.2367779141
H        5.7886367857   -0.9879122512    0.8740177894
H        4.0997068036   -0.7975263930    1.3605167841
H        5.5636035471    0.7311747094   -0.8581963063
H        5.0754271188    1.3841061072    0.7123425096
H        3.5390807498    2.0663685913   -1.1296970192
H        3.1458264785    0.3834697793   -1.4634205581
H        1.0671238725    0.8731031807    2.4286370973
H       -1.3665005401    0.5796540069    2.2936397627
H       -3.6224388184   -2.2192443314   -0.3668523872
H       -2.5940271747   -1.3797706218   -1.5204176058
H       -4.9286353555   -0.6231922365   -1.7884315859
H       -3.9591435672    0.7219433294   -1.1771560603
H       -4.7846789078    0.3131537223    1.1308466249
H       -5.7341338349   -1.0705085957    0.5524836093
H       -6.1255376264    0.5682830628    0.0045492518
30   
Iteration 1 Energy -45.83171164
C        4.7392760334   -0.7547129234    0.4819868032
C        4.7678736213    0.6327795535   -0.1468509737
C        3.4049259988    1.0597555777   -0.6826244948
O        2.4700734862    1.2266734787    0.3832298266
C        1.4915391447    0.3144308441    0.4801856739
O        1.4527046535   -0.6313788777   -0.2631485269
C        0.5762627558    0.6052003001    1.6125934503
C       -0.7421189752    0.4427316559    1.5296229959
C       -1.4279664016    0.1066195352    0.2569711810
O       -1.1837796593    0.5829999452   -0.8211107205
O       -2.4069857831   -0.7779209034    0.4994074148
C       -3.1543791863   -1.2103871652   -0.6375036497
C       -4.3051907107   -0.2608559722   -0.9498461666
C       -5.2888843011   -0.1498648600    0.2079071736
H        4.3796075884   -1.4962702419   -0.2301901305
H        5.7403294195   -1.0449549047    0.7999323806
H        4.0904646587   -0.7757389435    1.3565359510
H        5.4876311220    0.6446635880   -0.9686804014
H        5.1033155098    1.3564495136    0.6008989414
H        3.4905698161    2.0361768656   -1.1728598362
H        3.0321410322    0.3469276341   -1.4233641124
H        1.0471904651    0.9222498884    2.5325717438
H       -1.3822744890    0.5888476131    2.3883272354
H       -3.5370923524   -2.2057416374   -0.3919305810
H       -2.4920794451   -1.3125621150   -1.5035686764
H       -4.8265501317   -0.6190858815   -1.8404195127
H       -3.9066757532    0.7314424021   -1.1767861764
H       -4.8043099545    0.2587022494    1.0933075200
H       -5.7015757584   -1.1258633667    0.4617561665
H       -6.1140424147    0.5086871477   -0.0608109186
30   
Iteration 2 Energy -45.83280884
C        4.7447040884   -0.7408322288    0.4652426234
C        4.7538163320    0.6553619948   -0.1493338477
C        3.3837487604    1.0573015090   -0.6869900661
O        2.4317470154    1.1753053440    0.3594626131
C        1.4773791814    0.2471871840    0.4697905994
O        1.3239340713   -0.7245700342   -0.2085853733
C        0.5995943568    0.5801319074    1.6255109106
C       -0.7162169981    0.4466044887    1.5648442993
C       -1.4254129970    0.0952359661    0.2978597357
O       -1.1721526527    0.5540838852   -0.7737649991
O       -2.4064655095   -0.7789464816    0.5098695224
C       -3.1467395668   -1.2054564185   -0.6256088717
C       -4.2810365389   -0.2463407781   -0.9632288756
C       -5.2874689409   -0.1328212847    0.1765006383
H        4.3932528303   -1.4716148281   -0.2547766220
H        5.7433602422   -1.0206241069    0.7848179117
H        4.0888034529   -0.7740185074    1.3285269531
H        5.4613594385    0.6927827972   -0.9769810831
H        5.0653011485    1.3884326030    0.5957710777
H        3.4281265860    2.0417498059   -1.1666450978
H        3.0157197057    0.3190634012   -1.4019067567
H        1.1029647431    0.9052574725    2.5231078572
H       -1.3449885437    0.6129636732    2.4258549234
H       -3.5320047006   -2.1933347616   -0.3604823625
H       -2.4602170854   -1.2914577421   -1.4730071028
H       -4.7746528030   -0.6099324918   -1.8637483703
H       -3.8534818325    0.7317057195   -1.1874249827
H       -4.8084787874    0.2594688206    1.0662973873
H       -5.7062426384   -1.1051177051    0.4148820263
H       -6.0982523687    0.5324307963   -0.1003150871
30   
Iteration 3 Energy -45.83370082
C        4.7686290618   -0.7224360666    0.5169293039
C        4.7870883311    0.6606009366   -0.1232801639
C        3.4275090766    1.0454587130   -0.7010470526
O        2.4539940011    1.1830576212    0.3307069907
C        1.5071267396    0.2451958691    0.4313257171
O        1.4146083434   -0.7351068669   -0.2575734735
C        0.5967686902    0.5639828674    1.5685422378
C       -0.7231092036    0.4286276467    1.5092672182
C       -1.4464293610    0.1020796006    0.2480613145
O       -1.2029966567    0.6128547711   -0.8125920008
O       -2.4181090366   -0.7871546874    0.4741272179
C       -3.1877806317   -1.2014308673   -0.6521089770
C       -4.3352542312   -0.2376773647   -0.9413080258
C       -5.3099882785   -0.1465666849    0.2267121170
H        4.4368701823   -1.4694256562   -0.2001835587
H        5.7629167774   -0.9909802657    0.8657457146
H        4.0906933659   -0.7424551453    1.3671819340
H        5.5145043614    0.6837327197   -0.9361720453
H        5.0796688089    1.4078868727    0.6171885617
H        3.4831369127    2.0184987087   -1.1995494846
H        3.0828912725    0.2886832013   -1.4128405617
H        1.0876937398    0.8899032123    2.4738999209
H       -1.3483279191    0.5808149678    2.3769960524
H       -3.5653138676   -2.1937677253   -0.3926540181
H       -2.5268419353   -1.2720895655   -1.5226903776
H       -4.8543176857   -0.5871250132   -1.8351311472
H       -3.9177921160    0.7475795327   -1.1577938986
H       -4.8059422457    0.2284967486    1.1139026748
H       -5.7223576067   -1.1267041339    0.4555996531
H       -6.1295388999    0.5254660535   -0.0157222626
30   
Iteration 4 Energy -45.83360075
C        4.6946516958   -0.7492457534    0.4640727288
C        4.7108632804    0.6310667908   -0.1809007860
C        3.3353659184    1.0373432530   -0.7064497940
O        2.4075200683    1.1999202247    0.3670277234
C        1.4518402152    0.2781129310    0.5033664813
O        1.3296814990   -0.6951793263   -0.1948788936
C        0.5887679392    0.5987370286    1.6755605492
C       -0.7304283488    0.4655660493    1.6035526280
C       -1.3963515596    0.1376053071    0.3128496931
O       -1.1294796130    0.6384596332   -0.7506419687
O       -2.3594086862   -0.7651007382    0.5145044606
C       -3.0865891562   -1.1945712239   -0.6373979922
C       -4.2353157768   -0.2431800262   -0.9676066417
C       -5.2499471670   -0.1608497918    0.1660226159
H        4.3229549763   -1.4932490599   -0.2379882989
H        5.6979488587   -1.0329416827    0.7749546220
H        4.0497565412   -0.7563328961    1.3411873122
H        5.4057380292    0.6387194646   -1.0228985202
H        5.0460589448    1.3744860712    0.5457676016
H        3.3900388333    2.0059212726   -1.2109109578
H        2.9504856704    0.2827134830   -1.4014952462
H        1.0960830386    0.9118143364    2.5774449672
H       -1.3788696711    0.6163927421    2.4551431909
H       -3.4627722376   -2.1887871985   -0.3856701525
H       -2.3981292407   -1.2613204508   -1.4870446094
H       -4.7202473985   -0.6003134355   -1.8781613977
H       -3.8220706181    0.7470066889   -1.1705700202
H       -4.7793060907    0.2166131813    1.0717496461
H       -5.6627879996   -1.1454716084    0.3787313101
H       -6.0660519555    0.5060647340   -0.1037806711
30   
Iteration 5 Energy -45.83385577
C        4.7350603966   -0.7357692958    0.4920456475
C        4.7520245979    0.6461431813   -0.1500615014
C        3.3841099097    1.0410756277   -0.7032305695
O        2.4322189905    1.1930088788    0.3496922224
C        1.4814339308    0.2645079061    0.4665174049
O        1.3742445855   -0.7108628869   -0.2286979762
C        0.5929206889    0.5802454763    1.6213992828
C       -0.7264743473    0.4490270356    1.5507528126
C       -1.4246464107    0.1213229493    0.2755428302
O       -1.1773391786    0.6211853225   -0.7905336478
O       -2.3881311491   -0.7752951379    0.4926231127
C       -3.1392957757   -1.1985388312   -0.6454700530
C       -4.2881810298   -0.2404482848   -0.9532440534
C       -5.2814404006   -0.1543829742    0.1990130028
H        4.3848488852   -1.4813757832   -0.2183547802
H        5.7336779756   -1.0111014317    0.8231302442
H        4.0724894511   -0.7503668823    1.3550314952
H        5.4635610936    0.6619237309   -0.9774842590
H        5.0650685799    1.3912748316    0.5842100198
H        3.4398370644    2.0111896318   -1.2046167300
H        3.0197109088    0.2845495579   -1.4061439602
H        1.0912261317    0.8944184678    2.5271484273
H       -1.3640193317    0.6035340070    2.4091204025
H       -3.5161193987   -2.1907056194   -0.3875426579
H       -2.4667786049   -1.2675701981   -1.5070748980
H       -4.7912160905   -0.5935424985   -1.8550689860
H       -3.8726381297    0.7471472749   -1.1625034647
H       -4.7921350098    0.2183492467    1.0959818311
H       -5.6959979895   -1.1363905806    0.4176580521
H       -6.0980203542    0.5174472783   -0.0542996706
30   
Iteration 6 Energy -45.83388472
C        4.7384381272   -0.7327818367    0.4874354128
C        4.7465743446    0.6472943654   -0.1591906118
C        3.3745736526    1.0342802492   -0.7075896792
O        2.4268142115    1.1861220110    0.3490038662
C        1.4802147102    0.2559918074    0.4760418488
O        1.3683553535   -0.7232163720   -0.2122442582
C        0.5923915890    0.5770582483    1.6307526292
C       -0.7271906364    0.4534924940    1.5653675162
C       -1.4259610556    0.1234753116    0.2906766303
O       -1.1710206864    0.6342914098   -0.7675282676
O       -2.3883850355   -0.7758288793    0.4979061669
C       -3.1340198094   -1.1964568553   -0.6447239606
C       -4.2799910672   -0.2366734127   -0.9572073516
C       -5.2821676650   -0.1558540928    0.1878174082
H        4.3890060261   -1.4820222271   -0.2189062020
H        5.7390253192   -1.0025606488    0.8160432692
H        4.0788597829   -0.7475046893    1.3522288048
H        5.4532414085    0.6637095001   -0.9904559263
H        5.0591003734    1.3968983264    0.5703406644
H        3.4221319424    2.0023777567   -1.2136243303
H        3.0077681923    0.2715654258   -1.4017330795
H        1.0940930195    0.8900727671    2.5346477058
H       -1.3633597936    0.6118038542    2.4239529108
H       -3.5124024704   -2.1883600103   -0.3889423079
H       -2.4553658486   -1.2626028648   -1.5012668094
H       -4.7751662883   -0.5863684606   -1.8643607286
H       -3.8613119203    0.7508329002   -1.1593165334
H       -4.7983607936    0.2077290003    1.0909956931
H       -5.7019322587   -1.1375873385    0.3957949213
H       -6.0939527347    0.5208222605   -0.0663758217
30   
Iteration 7 Energy -45.83391751
C        4.7424019363   -0.7299478562    0.4894809119
C        4.7423143936    0.6464557840   -0.1648903553
C        3.3671959079    1.0234280928   -0.7125027643
O        2.4219357023    1.1799266226    0.3465335156
C        1.4791915616    0.2487404343    0.4834561141
O        1.3672039419   -0.7371898572   -0.1957909470
C        0.5921436440    0.5755526296    1.6376396559
C       -0.7276012109    0.4610033096    1.5682771052
C       -1.4278559639    0.1372013837    0.2919851610
O       -1.1829611844    0.6547957458   -0.7657445509
O       -2.3819543213   -0.7701909001    0.4953592606
C       -3.1268974353   -1.1892713103   -0.6490227799
C       -4.2760321747   -0.2316647430   -0.9571401013
C       -5.2813035602   -0.1640988666    0.1859530376
H        4.3965564579   -1.4850646429   -0.2122632113
H        5.7445545846   -0.9923266825    0.8190672084
H        4.0833220850   -0.7434582035    1.3546256884
H        5.4463958652    0.6616251052   -0.9983460787
H        5.0525086043    1.4021031357    0.5592172544
H        3.4081786813    1.9875944269   -1.2260445646
H        2.9998977771    0.2525318770   -1.3970427525
H        1.0946066916    0.8849456842    2.5424010514
H       -1.3641975465    0.6208400323    2.4262004622
H       -3.5014976318   -2.1829194794   -0.3954349455
H       -2.4474034677   -1.2485467806   -1.5051535166
H       -4.7669802183   -0.5769235465   -1.8682209103
H       -3.8601107405    0.7586136739   -1.1506719642
H       -4.7992859313    0.1871384664    1.0949050021
H       -5.7029101264   -1.1477730630    0.3803585097
H       -6.0914163320    0.5168795280   -0.0616509158
30   
Iteration 8 Energy -45.83393705
C        4.7436307741   -0.7302037983    0.4854592970
C        4.7357601201    0.6445747142   -0.1718657869
C        3.3573552557    1.0149039130   -0.7155832243
O        2.4167126635    1.1762514197    0.3480123329
C        1.4748645770    0.2462770516    0.4929046242
O        1.3605852772   -0.7428515178   -0.1821734670
C        0.5919410787    0.5754185506    1.6497628502
C       -0.7285997894    0.4723160039    1.5755589672
C       -1.4278533280    0.1497714454    0.2981920747
O       -1.1845005745    0.6708409712   -0.7587263470
O       -2.3756781846   -0.7642319990    0.4982905984
C       -3.1172870467   -1.1847263203   -0.6486951070
C       -4.2681836061   -0.2296966125   -0.9587561973
C       -5.2796936680   -0.1711737517    0.1790988006
H        4.4010715214   -1.4888105511   -0.2143339564
H        5.7476046861   -0.9866069732    0.8145728636
H        4.0855540672   -0.7453819283    1.3515239281
H        5.4373300042    0.6606281934   -1.0075801187
H        5.0453559656    1.4029258745    0.5497295219
H        3.3937172176    1.9763243078   -1.2342017548
H        2.9885318545    0.2394546044   -1.3942323248
H        1.0960790766    0.8770912402    2.5563130256
H       -1.3665126239    0.6392881737    2.4310501297
H       -3.4902133935   -2.1790098017   -0.3955763017
H       -2.4357514240   -1.2426578458   -1.5032518321
H       -4.7531499188   -0.5722133871   -1.8741867310
H       -3.8549560504    0.7630774559   -1.1451499155
H       -4.8016279409    0.1683641616    1.0947733751
H       -5.7060421869   -1.1554788021    0.3601586321
H       -6.0860444142    0.5155352076   -0.0655483765
30   
Iteration 9 Energy -45.83394600
C        4.7460990388   -0.7284827510    0.4805766102
C        4.7256666700    0.6438975297   -0.1813466419
C        3.3425509947    1.0028200035   -0.7200680471
O        2.4078708245    1.1684374890    0.3485936775
C        1.4688306373    0.2378033180    0.5041387200
O        1.3516865585   -0.7553107497   -0.1650259586
C        0.5894791896    0.5728934230    1.6622853685
C       -0.7320750377    0.4831272607    1.5893762349
C       -1.4256050429    0.1624811279    0.3084617911
O       -1.1821944848    0.6886321037   -0.7461223067
O       -2.3680123274   -0.7579023465    0.5030630534
C       -3.1044618262   -1.1782345324   -0.6476448729
C       -4.2561254447   -0.2254014279   -0.9608032628
C       -5.2766544715   -0.1777219068    0.1694429695
H        4.4095299012   -1.4925425444   -0.2163076504
H        5.7527229391   -0.9751181854    0.8094127980
H        4.0891949303   -0.7465325070    1.3475628179
H        5.4242004354    0.6621338514   -1.0196406087
H        5.0329460029    1.4066550188    0.5367015657
H        3.3711795107    1.9603983992   -1.2463536767
H        2.9736799415    0.2208228770   -1.3910976152
H        1.0964165505    0.8694533701    2.5688059703
H       -1.3705748533    0.6582973563    2.4429190162
H       -3.4765215385   -2.1734893433   -0.3968540923
H       -2.4197041199   -1.2351339719   -1.4996916627
H       -4.7329469283   -0.5632346665   -1.8823025168
H       -3.8455106342    0.7702819727   -1.1374740527
H       -4.8043064319    0.1461476083    1.0938589259
H       -5.7100056101   -1.1621325883    0.3328465741
H       -6.0773553844    0.5169548116   -0.0717735470
30   
Iteration 10 Energy -45.83395082
C        4.7460264615   -0.7292782419    0.4784734094
C        4.7226127875    0.6427951671   -0.1841922802
C        3.3381430645    0.9995579635   -0.7205392868
O        2.4062335451    1.1670564699    0.3496683793
C        1.4669235781    0.2370846163    0.5085395001
O        1.3475302026   -0.7565069550   -0.1592220203
C        0.5906052546    0.5755131456    1.6679220332
C       -0.7308001199    0.4874443091    1.5916796989
C       -1.4243175617    0.1665895822    0.3106420978
O       -1.1793746539    0.6949390014   -0.7422082133
O       -2.3656974978   -0.7555962576    0.5038215926
C       -3.1007878989   -1.1763240070   -0.6472027056
C       -4.2529808150   -0.2247910420   -0.9613394381
C       -5.2765726590   -0.1811110804    0.1664344465
H        4.4111774280   -1.4944328834   -0.2180018217
H        5.7531792240   -0.9736258054    0.8073960248
H        4.0892048430   -0.7482451104    1.3454430128
H        5.4200599069    0.6617166173   -1.0233247020
H        5.0299379116    1.4062910554    0.5331061272
H        3.3649888728    1.9557349613   -1.2498474668
H        2.9682843900    0.2159373071   -1.3890712391
H        1.0974982468    0.8716193233    2.5746982235
H       -1.3698489824    0.6641314163    2.4443190565
H       -3.4722426364   -2.1721522709   -0.3971565122
H       -2.4154393256   -1.2332970105   -1.4988143109
H       -4.7269374193   -0.5610545904   -1.8848583843
H       -3.8437674113    0.7720691328   -1.1348526990
H       -4.8059038237    0.1364346753    1.0938562360
H       -5.7127615835   -1.1653270862    0.3231273455
H       -6.0749733389    0.5168275971   -0.0729565233
30   
Iteration 11 Energy -45.83395379
C        4.7476978123   -0.7304332682    0.4787005066
C        4.7265474035    0.6433832686   -0.1805201148
C        3.3433242495    1.0022279714   -0.7188630370
O        2.4094491700    1.1682671361    0.3493107950
C        1.4683081899    0.2389620451    0.5043067285
O        1.3490636743   -0.7528275204   -0.1657664663
C        0.5908227806    0.5764570003    1.6630679453
C       -0.7306160476    0.4869913451    1.5878747612
C       -1.4254401790    0.1643883941    0.3078954230
O       -1.1805213897    0.6896879039   -0.7462726973
O       -2.3683947554   -0.7558866771    0.5038231547
C       -3.1049667559   -1.1778532879   -0.6453435498
C       -4.2568088900   -0.2261120469   -0.9599754402
C       -5.2797994085   -0.1806376934    0.1683396899
H        4.4148100217   -1.4936658369   -0.2207830744
H        5.7537784186   -0.9758267750    0.8100215320
H        4.0882142756   -0.7513959859    1.3435586989
H        5.4259357558    0.6641486535   -1.0179430945
H        5.0326289875    1.4048556609    0.5394696325
H        3.3720941741    1.9591263871   -1.2469468266
H        2.9744182662    0.2200883896   -1.3897441201
H        1.0973261470    0.8737404650    2.5696206684
H       -1.3689721751    0.6643608160    2.4408915615
H       -3.4769106097   -2.1731806872   -0.3936760592
H       -2.4207503564   -1.2369316220   -1.4978140126
H       -4.7314321879   -0.5629760495   -1.8829145201
H       -3.8472138036    0.7703860592   -1.1348063687
H       -4.8078968532    0.1357918968    1.0954761203
H       -5.7177719234   -1.1640248120    0.3250644342
H       -6.0769240018    0.5188888696   -0.0705126903
30   
Iteration 12 Energy -45.83395730
C        4.7508716186   -0.7327442124    0.4793222199
C        4.7318641725    0.6431896094   -0.1756002531
C        3.3501984322    1.0034291233   -0.7172440615
O        2.4139527687    1.1696126005    0.3481068295
C        1.4696184078    0.2421131751    0.4987892086
O        1.3498568210   -0.7478750866   -0.1734127522
C        0.5908357078    0.5806188798    1.6561363397
C       -0.7306124197    0.4892349177    1.5825697370
C       -1.4268656320    0.1642060562    0.3039534492
O       -1.1833579125    0.6866880328   -0.7517236391
O       -2.3708290282   -0.7546259561    0.5034254288
C       -3.1094404252   -1.1781710300   -0.6432804697
C       -4.2620282016   -0.2270675264   -0.9572308305
C       -5.2851640078   -0.1836754127    0.1710888581
H        4.4231795239   -1.4940568044   -0.2246577241
H        5.7552184578   -0.9779140214    0.8159026128
H        4.0861230057   -0.7572191216    1.3400114743
H        5.4340875455    0.6668766687   -1.0105031413
H        5.0351807591    1.4024309599    0.5479129825
H        3.3813292531    1.9601228846   -1.2456949256
H        2.9826946490    0.2216445317   -1.3895342655
H        1.0970831152    0.8809547121    2.5617694643
H       -1.3681807410    0.6673899580    2.4360433809
H       -3.4808922469   -2.1733191905   -0.3899016655
H       -2.4271308554   -1.2385822557   -1.4973231418
H       -4.7361726154   -0.5630894855   -1.8806997016
H       -3.8531310780    0.7699455562   -1.1308679373
H       -4.8117712961    0.1251406950    1.1000081965
H       -5.7274362401   -1.1660226489    0.3219304105
H       -6.0790815485    0.5207643911   -0.0637565035
30   
Iteration 13 Energy -45.83395904
C        4.7522873503   -0.7355787480    0.4792306368
C        4.7348854326    0.6416824535   -0.1728933754
C        3.3543095573    1.0031441522   -0.7166562302
O        2.4170027191    1.1709713519    0.3474615156
C        1.4698129397    0.2458624517    0.4961192714
O        1.3485100264   -0.7433035538   -0.1770125657
C        0.5906126699    0.5859213184    1.6525653014
C       -0.7308139069    0.4935469068    1.5795884319
C       -1.4278151149    0.1667533518    0.3018675156
O       -1.1858214217    0.6882641774   -0.7546639086
O       -2.3711678350   -0.7523492585    0.5031561657
C       -3.1105985070   -1.1774364137   -0.6424416323
C       -4.2647665404   -0.2277633532   -0.9553108024
C       -5.2885243299   -0.1884856045    0.1725889587
H        4.4285302756   -1.4957366358   -0.2278128114
H        5.7553071439   -0.9805080443    0.8199057194
H        4.0835917507   -0.7624708897    1.3367942526
H        5.4388144083    0.6670624264   -1.0062988006
H        5.0365941594    1.3994430897    0.5528212498
H        3.3872597901    1.9593731996   -1.2457938495
H        2.9868736627    0.2212011038   -1.3888458943
H        1.0969091393    0.8883851427    2.5574700824
H       -1.3681787431    0.6723684320    2.4331050190
H       -3.4805903995   -2.1728486801   -0.3880844839
H       -2.4293193044   -1.2372826224   -1.4973377293
H       -4.7376770149   -0.5628032901   -1.8797514548
H       -3.8573865529    0.7702528041   -1.1266938386
H       -4.8146400778    0.1130145600    1.1036744091
H       -5.7337786116   -1.1704549099    0.3169704566
H       -6.0802226761    0.5197750821   -0.0581820286
30   
Iteration 14 Energy -45.83396021
C        4.7517928438   -0.7394537262    0.4790948841
C        4.7369785479    0.6388076185   -0.1708522710
C        3.3577268080    1.0025237210   -0.7164918667
O        2.4197966235    1.1731078268    0.3469589018
C        1.4694075966    0.2512081267    0.4941859616
O        1.3456733915   -0.7373953703   -0.1795499607
C        0.5902483981    0.5930739512    1.6499873750
C       -0.7311000548    0.4994113077    1.5772512559
C       -1.4283942087    0.1709209699    0.3001894606
O       -1.1883628245    0.6928244399   -0.7567088320
O       -2.3701184972   -0.7495028804    0.5024502585
C       -3.1098473232   -1.1760644311   -0.6427032342
C       -4.2665683849   -0.2287197508   -0.9535865647
C       -5.2905456214   -0.1950411742    0.1742399336
H        4.4309659041   -1.4985302026   -0.2304548991
H        5.7534128583   -0.9849188210    0.8235205289
H        4.0795692717   -0.7677830757    1.3338762687
H        5.4423644907    0.6647867459   -1.0030280653
H        5.0380565806    1.3951550546    0.5565665356
H        3.3930218548    1.9583476556   -1.2460874274
H        2.9892428483    0.2206869036   -1.3881546949
H        1.0966355869    0.8976063985    2.5541844526
H       -1.3685336889    0.6785381815    2.4306842139
H       -3.4772650192   -2.1722626274   -0.3879917467
H       -2.4292926797   -1.2337197976   -1.4982317086
H       -4.7383057923   -0.5628450725   -1.8789486357
H       -3.8616916595    0.7707332653   -1.1223857096
H       -4.8164144375    0.1001304945    1.1072524018
H       -5.7371451866   -1.1772851227    0.3125379471
H       -6.0813082368    0.5156593914   -0.0522651825
30   
Iteration 15 Energy -45.83396074
C        4.7497930015   -0.7428733935    0.4788216976
C        4.7376779866    0.6359234624   -0.1699866371
C        3.3594912886    1.0023275539   -0.7164026669
O        2.4214903692    1.1749627536    0.3469908829
C        1.4688116337    0.2555589965    0.4935022058
O        1.3427517728   -0.7325027106   -0.1808095593
C        0.5899191760    0.5986616849    1.6490707008
C       -0.7313921962    0.5044040654    1.5763149654
C       -1.4286888298    0.1750761325    0.2994732072
O       -1.1900791704    0.6980093461   -0.7573092810
O       -2.3685269827   -0.7471355907    0.5017376426
C       -3.1078927733   -1.1747761574   -0.6435291320
C       -4.2670536548   -0.2298857208   -0.9527810800
C       -5.2907256070   -0.2003107621    0.1754107868
H        4.4295181619   -1.5010551335   -0.2319432288
H        5.7505044714   -0.9897071786    0.8249529056
H        4.0759352267   -0.7712418419    1.3323304104
H        5.4437856839    0.6614357646   -1.0015895053
H        5.0393823712    1.3912045775    0.5582713280
H        3.3968510818    1.9581688059   -1.2457649041
H        2.9895022633    0.2211968738   -1.3879614546
H        1.0963435964    0.9041762251    2.5529370719
H       -1.3689162987    0.6838113980    2.4296314791
H       -3.4727224067   -2.1719653586   -0.3891355134
H       -2.4275548383   -1.2299668814   -1.4993150032
H       -4.7382463411   -0.5639611616   -1.8784434838
H       -3.8646809573    0.7707789211   -1.1203333306
H       -4.8166795398    0.0930465455    1.1090529547
H       -5.7361824321   -1.1834116610    0.3113455774
H       -6.0824160673    0.5100504447   -0.0489994558
30   
Iteration 16 Energy -45.83396158
C        4.7449663018   -0.7496625865    0.4785744680
C        4.7389292197    0.6301632695   -0.1680728527
C        3.3630198761    1.0026356854   -0.7159013870
O        2.4247036236    1.1787207183    0.3470820500
C        1.4676588462    0.2639208694    0.4917140798
O        1.3373256716   -0.7227990794   -0.1840357468
C        0.5893058244    0.6090332447    1.6469774959
C       -0.7319585336    0.5140255596    1.5742254181
C       -1.4292618902    0.1831365038    0.2977263503
O       -1.1939296436    0.7086067381   -0.7585832154
O       -2.3651509769   -0.7429033754    0.4999278785
C       -3.1039007768   -1.1724280137   -0.6453847805
C       -4.2679762669   -0.2325749613   -0.9512975478
C       -5.2903383736   -0.2102084288    0.1782239588
H        4.4246124957   -1.5058085600   -0.2343293003
H        5.7439014059   -1.0000368618    0.8273394656
H        4.0684775885   -0.7774137143    1.3300330382
H        5.4464455395    0.6542997753   -0.9985506270
H        5.0423966300    1.3831809143    0.5617951207
H        3.4048196799    1.9588043867   -1.2442816287
H        2.9900825294    0.2235236535   -1.3880421070
H        1.0957514912    0.9160076551    2.5503567839
H       -1.3695405602    0.6942724040    2.4273317666
H       -3.4634676496   -2.1717315475   -0.3919444492
H       -2.4241604909   -1.2227102554   -1.5018555936
H       -4.7387609798   -0.5671006150   -1.8770180604
H       -3.8706873291    0.7703623944   -1.1173723938
H       -4.8162637575    0.0821547357    1.1121738769
H       -5.7320183865   -1.1953435564    0.3117812821
H       -6.0849811189    0.4978730477   -0.0430537630
30   
Iteration 17 Energy -45.83396488
C        4.7253442721   -0.7762970421    0.4773208640
C        4.7436112716    0.6076244163   -0.1601491359
C        3.3768329580    1.0045397216   -0.7129658006
O        2.4373100473    1.1928889648    0.3480235328
C        1.4634256079    0.2957088317    0.4844749922
O        1.3167564156   -0.6847141500   -0.1979001222
C        0.5869177574    0.6486071338    1.6383339244
C       -0.7342815010    0.5520280720    1.5657583071
C       -1.4321062335    0.2153301778    0.2907316033
O       -1.2099922500    0.7502369926   -0.7637832103
O       -2.3519800763   -0.7260854799    0.4928762106
C       -3.0882366520   -1.1632630333   -0.6521038691
C       -4.2714249365   -0.2437939772   -0.9455802029
C       -5.2880288439   -0.2484895488    0.1892972452
H        4.4035899847   -1.5238378780   -0.2440009908
H        5.7172249908   -1.0414211042    0.8353393963
H        4.0392788839   -0.8012584738    1.3212014803
H        5.4564032369    0.6264545043   -0.9863264534
H        5.0542715610    1.3512149611    0.5763417459
H        3.4363438690    1.9621385835   -1.2369101636
H        2.9928615754    0.2341574958   -1.3886069293
H        1.0935488790    0.9608260779    2.5398433561
H       -1.3718232333    0.7364094750    2.4180417435
H       -3.4270672009   -2.1706522681   -0.4024702072
H       -2.4113884305   -1.1948513518   -1.5115178894
H       -4.7408187518   -0.5809695258   -1.8710884430
H       -3.8942549679    0.7676541947   -1.1069142447
H       -4.8137674695    0.0423701774    1.1236458407
H       -5.7136074505   -1.2416545148    0.3155705880
H       -6.0949433231    0.4490985677   -0.0209435878
30   
Iteration 18 Energy -45.83399933
C        4.5216860482   -0.9870756967    0.4629753696
C        4.7449733049    0.4136435331   -0.0927261120