34   
Iteration 0 Energy -45.16698978
C        5.1310166186   -1.3670255474   -0.4052139143
C        4.8648031586   -0.0772910890   -0.1594764321
C        3.5397954671    0.4643206804    0.2112466695
O        3.3599349436    1.6555188549    0.4118151884
O        2.6021916012   -0.5115935412    0.2790925114
C        1.2683970702   -0.0904553722    0.6411524899
Si       0.0835010735    0.3098448883   -0.8083267412
C        0.0412139140   -1.1933954506   -1.9437363024
C        0.7766795415    1.7602055963   -1.7823152075
O       -1.4552589363    0.6733695711   -0.2573735705
Si      -2.6658151276    0.0905576833    0.7364832829
C       -2.1277018440    0.1337472328    2.5369440669
C       -4.2093976298    1.1493023892    0.5568767274
C       -3.1098255051   -1.6803624814    0.2909645545
H        6.1353853074   -1.6797107838   -0.6723392048
H        4.3687928438   -2.1378760961   -0.3474455486
H        5.6481769823    0.6704930114   -0.2249417704
H        0.8306784933   -0.9273029023    1.1959767506
H        1.3003691530    0.7576619709    1.3354495433
H        1.0390259225   -1.4013680424   -2.3411170605
H       -0.6360101733   -1.0187029670   -2.7847934690
H       -0.3033450681   -2.0777378737   -1.4002384713
H        0.1153009778    2.0119679780   -2.6165835121
H        0.8725626844    2.6421540587   -1.1423408408
H        1.7632124447    1.5192199508   -2.1886789658
H       -2.9401162251   -0.2003513340    3.1890467362
H       -1.2670370954   -0.5209252956    2.7007906614
H       -1.8476652063    1.1498630048    2.8299009154
H       -4.5679010241    1.1329369490   -0.4765296295
H       -3.9972072257    2.1869116356    0.8308501161
H       -5.0090956762    0.7786089586    1.2047962243
H       -3.4173373463   -1.7481002972   -0.7567091397
H       -2.2533676571   -2.3439328706    0.4419802315
H       -3.9339564570   -2.0388481483    0.9147931055
34   
Iteration 1 Energy -45.17447455
C        5.0203732937   -1.2990442475   -0.4602958833
C        4.7808988318   -0.0243784329   -0.1954437439
C        3.4523576937    0.4718649374    0.2188692451
O        3.1600945364    1.6168648390    0.4732675758
O        2.5671895948   -0.5231740124    0.3044107141
C        1.2497215838   -0.1507011716    0.6956475584
Si       0.1045531795    0.2703729874   -0.7915829399
C        0.0573395778   -1.2489759625   -1.9475206968
C        0.7838947868    1.7791982966   -1.7275188691
O       -1.4023263774    0.6247469356   -0.2412880021
Si      -2.6165469046    0.0784466805    0.7364793824
C       -2.0732382537    0.1551639159    2.5663266699
C       -4.1322786952    1.2039219478    0.4758877135
C       -3.0752339375   -1.7218494792    0.2897173180
H        5.9891854948   -1.6582860635   -0.7647914339
H        4.2390752949   -2.0343345637   -0.3789004528
H        5.5471638180    0.7341002522   -0.2688990161
H        0.8561133395   -1.0065723300    1.2511226782
H        1.3086263407    0.6904034414    1.3907206850
H        1.0433111615   -1.4660796729   -2.3454353257
H       -0.6064814946   -1.0797203001   -2.7890418290
H       -0.2908175065   -2.1420713464   -1.4362515544
H        0.1414921489    2.0565741112   -2.5582013172
H        0.8775218981    2.6478476146   -1.0826836693
H        1.7686908375    1.5665143966   -2.1281233083
H       -2.8813447176   -0.1418117106    3.2259688004
H       -1.2319931388   -0.5009940691    2.7687983325
H       -1.7729929384    1.1585329013    2.8520166751
H       -4.4767524754    1.1869416329   -0.5535264828
H       -3.9144711911    2.2378242009    0.7247411784
H       -4.9558307206    0.8821210621    1.1027908830
H       -3.3601091322   -1.8155095571   -0.7537717094
H       -2.2471771758   -2.4037658441    0.4595594920
H       -3.9100087531   -2.0724670685    0.8869513272
34   
Iteration 2 Energy -45.17524238
C        5.1149713842   -1.2400037846   -0.5542302752
C        4.7573791761   -0.0088111937   -0.2381176482
C        3.4130915653    0.4112425838    0.2165459429
O        3.2026999951    1.5711709146    0.4675363801
O        2.5225305802   -0.5754377420    0.3238519552
C        1.2107344346   -0.2281054291    0.7429621417
Si       0.0992751472    0.2256492178   -0.7617932588
C        0.0510508316   -1.2844652070   -1.9336967723
C        0.7632143113    1.7688776835   -1.6543463949
O       -1.3890128206    0.5747305940   -0.2111417633
Si      -2.6237735026    0.0756044548    0.7462494854
C       -2.1050052861    0.1846442605    2.5845174171
C       -4.0839809205    1.2532817681    0.3975365786
C       -3.1042437065   -1.7261225418    0.3143934665
H        6.1155580653   -1.4628357611   -0.8774951766
H        4.4206418959   -2.0580516675   -0.4986736324
H        5.4599755624    0.8086983412   -0.2973157900
H        0.8347527716   -1.1009075797    1.2811806364
H        1.2771942942    0.6038794163    1.4475443856
H        1.0347805813   -1.5037322233   -2.3314145135
H       -0.6070444443   -1.1034974887   -2.7748178366
H       -0.3038858050   -2.1814449651   -1.4383039471
H        0.1238390983    2.0648529258   -2.4782807762
H        0.8517639500    2.6181196538   -0.9872557442
H        1.7500928051    1.5761666795   -2.0555673590
H       -2.9288336324   -0.0712423533    3.2388660791
H       -1.2864235703   -0.4860783723    2.8189664447
H       -1.7815362141    1.1843828110    2.8490617709
H       -4.3952756340    1.2220486305   -0.6397912451
H       -3.8379727251    2.2834475209    0.6250049328
H       -4.9385139147    0.9808424374    1.0028173455
H       -3.3586547206   -1.8330025029   -0.7336072653
H       -2.2974074650   -2.4206882634    0.5193687703
H       -3.9619820880   -2.0515084965    0.8894456604
34   
Iteration 3 Energy -45.17655592
C        5.0552971971   -1.2592875814   -0.5908168556
C        4.7529613527   -0.0121300027   -0.2626645834
C        3.4255066490    0.4358106326    0.2213865120
O        3.1775386335    1.5867808975    0.4965802730
O        2.5467930773   -0.5597942146    0.3217793248
C        1.2276400773   -0.2308006820    0.7511619123
Si       0.1154032103    0.2243886495   -0.7515529267
C        0.0877164729   -1.2743092496   -1.9275832382
C        0.7477658960    1.7838598562   -1.6261031646
O       -1.3771863267    0.5510553065   -0.1956944001
Si      -2.6230422526    0.0638963777    0.7536594008
C       -2.1258244599    0.1995701558    2.5876825516
C       -4.0654430507    1.2392059521    0.3604875839
C       -3.0912658921   -1.7365901592    0.3395059531
H        6.0392987745   -1.5254431489   -0.9372594680
H        4.3278035870   -2.0500330795   -0.5211549994
H        5.4755817598    0.7883574127   -0.3300155971
H        0.8637081142   -1.1156240411    1.2760217095
H        1.2799967683    0.5959725750    1.4647756477
H        1.0762139353   -1.4783890414   -2.3273317264
H       -0.5757284856   -1.0927170882   -2.7670177809
H       -0.2571309061   -2.1760784635   -1.4305414926
H        0.0960297902    2.0753048001   -2.4438747854
H        0.8219191028    2.6237010241   -0.9429779005
H        1.7387209246    1.6139122872   -2.0345157949
H       -2.9596813036   -0.0450198204    3.2373046480
H       -1.3094487948   -0.4716325510    2.8354981351
H       -1.8030447806    1.2060972814    2.8340472610
H       -4.3537990149    1.1881068647   -0.6843589226
H       -3.8111778939    2.2715523243    0.5767078237
H       -4.9348244662    0.9818630178    0.9558147747
H       -3.3271160732   -1.8514710992   -0.7137641766
H       -2.2816272286   -2.4229792787    0.5683919962
H       -3.9595543933   -2.0554315926    0.9064223003
34   
Iteration 4 Energy -45.17681445
C        5.0269255755   -1.2411027913   -0.6273274846
C        4.7601467970    0.0069128574   -0.2728002970
C        3.4324191149    0.4336213488    0.2270671769
O        3.1757275211    1.5758747663    0.5336507319
O        2.5681391159   -0.5740338664    0.3097116048
C        1.2447608845   -0.2620954390    0.7507050832
Si       0.1289037043    0.2093013329   -0.7459017543
C        0.1090437204   -1.2770928840   -1.9348423713
C        0.7310725084    1.7923879829   -1.5969902050
O       -1.3649343234    0.5154218190   -0.1756951573
Si      -2.6281479502    0.0545452887    0.7657234775
C       -2.1470293159    0.2206412745    2.5992147587
C       -4.0436218708    1.2419802856    0.3181083336
C       -3.0961895813   -1.7483333007    0.3719114971
H        5.9961750345   -1.5374378493   -0.9926890512
H        4.2751227915   -2.0095736430   -0.5606194702
H        5.4894344878    0.8031344116   -0.3266228317
H        0.8927011935   -1.1605397692    1.2579391116
H        1.2931918337    0.5519162551    1.4786966535
H        1.0971816386   -1.4712605264   -2.3420933404
H       -0.5610690339   -1.0921617766   -2.7693424443
H       -0.2277201393   -2.1841424697   -1.4406532993
H        0.0641631784    2.0882487273   -2.4014593366
H        0.7979059215    2.6179432011   -0.8949169938
H        1.7211883776    1.6497199691   -2.0204298203
H       -2.9884465631   -0.0014306154    3.2483846661
H       -1.3392550796   -0.4552887988    2.8642472635
H       -1.8146751094    1.2294515725    2.8254039523
H       -4.3073055262    1.1704659058   -0.7326080462
H       -3.7730306130    2.2741515080    0.5175827610
H       -4.9331335287    1.0157449337    0.8981484518
H       -3.3113735303   -1.8759027298   -0.6849045035
H       -2.2914342543   -2.4321007113    0.6269167327
H       -3.9768369798   -2.0572619480    0.9264841455
34   
Iteration 5 Energy -45.17703227
C        5.0769690945   -1.2031993068   -0.7003288107
C        4.7609783383    0.0144369150   -0.2853587663
C        3.4299196131    0.4078628856    0.2367903773
O        3.1489526951    1.5341157370    0.5833451095
O        2.5860827757   -0.6152233417    0.2937540768
C        1.2580514045   -0.3267778223    0.7517309196
Si       0.1394479830    0.1784862965   -0.7334748979
C        0.1219872726   -1.2877016524   -1.9461677610
C        0.7039455239    1.7967840341   -1.5430065013
O       -1.3529693754    0.4571707123   -0.1403225538
Si      -2.6471418536    0.0486911615    0.7853614868
C       -2.1884476644    0.2630527790    2.6183829141
C       -4.0111170834    1.2603067981    0.2488669337
C       -3.1252489671   -1.7576630997    0.4251149607
H        6.0560813788   -1.4483460036   -1.0793805455
H        4.3532399415   -2.0003995344   -0.6710067761
H        5.4686821132    0.8306137786   -0.3049075858
H        0.9193824698   -1.2444995672    1.2301396986
H        1.3057870767    0.4648903614    1.5027713821
H        1.1073895819   -1.4720768786   -2.3651665791
H       -0.5566453648   -1.0941142318   -2.7725795557
H       -0.2073600897   -2.2019006228   -1.4593825124
H        0.0151324661    2.1056895506   -2.3241027295
H        0.7658915502    2.5969270406   -0.8109252730
H        1.6895213538    1.6931938252   -1.9897349463
H       -3.0411109917    0.0836060588    3.2667025904
H       -1.3995365583   -0.4236860989    2.9123748902
H       -1.8333639826    1.2711294981    2.8128591450
H       -4.2361149399    1.1560918131   -0.8084458436
H       -3.7090385370    2.2891067075    0.4206323019
H       -4.9317069116    1.0904214660    0.8004812618
H       -3.3072406663   -1.9077132151   -0.6353235659
H       -2.3341458002   -2.4407903257    0.7223070673
H       -4.0262538467   -2.0467813964    0.9580000829
34   
Iteration 6 Energy -45.17717054
C        5.0837645836   -1.2003609696   -0.7021407329
C        4.7690627052    0.0184368408   -0.2909015629
C        3.4340422580    0.4023069509    0.2280990080
O        3.1496681458    1.5307784114    0.5622252175
O        2.5921541154   -0.6236146380    0.2867266813
C        1.2631854880   -0.3445359139    0.7475866277
Si       0.1411673380    0.1721572114   -0.7297549809
C        0.1205189323   -1.2850596541   -1.9551425279
C        0.6978805222    1.8014349113   -1.5243841339
O       -1.3488354459    0.4383381546   -0.1282553718
Si      -2.6527675030    0.0465066685    0.7905566751
C       -2.1975543170    0.2747000318    2.6243814097
C       -4.0060785479    1.2618736196    0.2325493609
C       -3.1325981213   -1.7627944351    0.4387066103
H        6.0687293263   -1.4277734919   -1.0744472632
H        4.3667161697   -2.0040968085   -0.6763863372
H        5.4755274864    0.8360648008   -0.3118030813
H        0.9258044066   -1.2679289263    1.2173130640
H        1.3106907103    0.4391373137    1.5063746125
H        1.1041863199   -1.4663166079   -2.3780060712
H       -0.5601657426   -1.0874897157   -2.7781810704
H       -0.2067821424   -2.2028076962   -1.4745144941
H        0.0022235549    2.1187122505   -2.2956024127
H        0.7625997548    2.5927308797   -0.7834984764
H        1.6795834523    1.7066811743   -1.9795821706
H       -3.0514197709    0.1065387285    3.2731938167
H       -1.4137257030   -0.4139962802    2.9259867205
H       -1.8358681950    1.2813462569    2.8116103299
H       -4.2222547394    1.1493991064   -0.8254470249
H       -3.6977456427    2.2898475471    0.3958985595
H       -4.9324820071    1.1053137603    0.7767903587
H       -3.3056098900   -1.9206448767   -0.6217201037
H       -2.3456243446   -2.4453423873    0.7465729527
H       -4.0379931570   -2.0478378956    0.9651958055
34   
Iteration 7 Energy -45.17725602
C        5.1004606997   -1.1975858930   -0.7026230400
C        4.7822747114    0.0199388325   -0.2897792053
C        3.4423195756    0.3969657994    0.2194289673
O        3.1599328464    1.5269333092    0.5472555783
O        2.6008757264   -0.6313754373    0.2787968833
C        1.2718448405   -0.3592355441    0.7389086676
Si       0.1417652355    0.1686413929   -0.7273261450
C        0.1158200004   -1.2768294553   -1.9681616269
C        0.6904072668    1.8078789291   -1.5084257209
O       -1.3451336534    0.4169907632   -0.1152227494
Si      -2.6597347702    0.0441645559    0.7954148442
C       -2.2076230937    0.2903960893    2.6289754773
C       -4.0071798195    1.2574536547    0.2174830275
C       -3.1392015120   -1.7689234834    0.4557180614
H        6.0840897423   -1.4357833205   -1.0707999168
H        4.3799128837   -1.9973241006   -0.6821078448
H        5.4889290598    0.8374918841   -0.3040700673
H        0.9343849895   -1.2880227013    1.1995173635
H        1.3176681074    0.4155059694    1.5068080576
H        1.0977106092   -1.4537760218   -2.3957512287
H       -0.5677490544   -1.0737524306   -2.7866976686
H       -0.2087004268   -2.1991936196   -1.4951251386
H       -0.0143821150    2.1350453159   -2.2669836364
H        0.7623557100    2.5903094436   -0.7593152705
H        1.6661415858    1.7192775540   -1.9752937699
H       -3.0623853773    0.1331693809    3.2785498598
H       -1.4277953834   -0.3987658935    2.9388214325
H       -1.8405373597    1.2963422327    2.8071453502
H       -4.2165805662    1.1346810756   -0.8405391409
H       -3.6958084968    2.2859184180    0.3702329654
H       -4.9369360488    1.1107414735    0.7570408843
H       -3.3035260369   -1.9368876378   -0.6042276407
H       -2.3552466013   -2.4490673517    0.7752794689
H       -4.0483732751   -2.0496188620    0.9770729164
34   
Iteration 8 Energy -45.17732446
C        5.1138224532   -1.1909105639   -0.7187651400
C        4.7907916885    0.0199875449   -0.2910960042
C        3.4490364765    0.3880725506    0.2173171874
O        3.1609094404    1.5140197413    0.5525163123
O        2.6133084513   -0.6456727900    0.2730308728
C        1.2844373326   -0.3803950910    0.7323144361
Si       0.1455254732    0.1614955214   -0.7223288042
C        0.1150759541   -1.2683684540   -1.9813468497
C        0.6842304349    1.8120691047   -1.4867159571
O       -1.3382990826    0.3879203155   -0.0979535262
Si      -2.6671684643    0.0414505856    0.8012211154
C       -2.2234234090    0.3136141595    2.6331760854
C       -4.0041483685    1.2516924321    0.1938612239
C       -3.1489127737   -1.7745554327    0.4806811047
H        6.1004154334   -1.4167094097   -1.0866244636
H        4.3974541317   -1.9947286974   -0.7118522575
H        5.4960772211    0.8386891179   -0.2934045704
H        0.9476355922   -1.3152509299    1.1814867218
H        1.3268096475    0.3841622749    1.5109721123
H        1.0957014810   -1.4400037286   -2.4141150589
H       -0.5715276683   -1.0564733493   -2.7949183209
H       -0.2071487452   -2.1963236927   -1.5175815918
H       -0.0314384753    2.1505810019   -2.2301600459
H        0.7661048424    2.5835447285   -0.7272844271
H        1.6532432413    1.7304945851   -1.9680236545
H       -3.0818771542    0.1724973367    3.2815624796
H       -1.4499436063   -0.3766606142    2.9563453100
H       -1.8492058654    1.3192830106    2.7973687220
H       -4.2044364079    1.1134082774   -0.8641228120
H       -3.6882009024    2.2808688147    0.3324604079
H       -4.9390840539    1.1183109807    0.7274492686
H       -3.3012837269   -1.9561457786   -0.5788076073
H       -2.3699339701   -2.4518418150    0.8179881915
H       -4.0645466213   -2.0464174159    0.9953495342
34   
Iteration 9 Energy -45.17739243
C        5.1300167032   -1.1780419488   -0.7520635648
C        4.7994305948    0.0236931222   -0.3042733969
C        3.4576681759    0.3768560866    0.2141063864
O        3.1541188762    1.4977409793    0.5529770819
O        2.6338664947   -0.6668482379    0.2692114383
C        1.3045480154   -0.4152366090    0.7290633803
Si       0.1548445189    0.1481678276   -0.7095868519
C        0.1214303608   -1.2540121710   -1.9990931827
C        0.6811330753    1.8155005676   -1.4456686758
O       -1.3248370119    0.3397815306   -0.0686139180
Si      -2.6765340471    0.0357528850    0.8094285553
C       -2.2534288075    0.3503348839    2.6389892809
C       -3.9951124678    1.2403473225    0.1536462085
C       -3.1672865236   -1.7827135908    0.5206619349
H        6.1170986333   -1.3922031887   -1.1262826353
H        4.4189892325   -1.9867623398   -0.7553821599
H        5.4992340651    0.8470876591   -0.2975397588
H        0.9689374185   -1.3587114006    1.1612977341
H        1.3391880555    0.3352477066    1.5225013139
H        1.1012621762   -1.4168793190   -2.4378143398
H       -0.5672454447   -1.0245190128   -2.8062122006
H       -0.1996377321   -2.1914782588   -1.5536225264
H       -0.0488965390    2.1726447413   -2.1663063086
H        0.7810987702    2.5693008920   -0.6705238269
H        1.6400997025    1.7425354735   -1.9486045480
H       -3.1210305327    0.2359594850    3.2807872558
H       -1.4921422825   -0.3411777101    2.9879409073
H       -1.8684834408    1.3553838765    2.7813618872
H       -4.1823300945    1.0771412184   -0.9033989127
H       -3.6734037075    2.2706210341    0.2707531553
H       -4.9379326045    1.1263987013    0.6781311451
H       -3.3005877141   -1.9863680491   -0.5375113207
H       -2.3994014419   -2.4572844478    0.8878767360
H       -4.0946744769   -2.0365553876    1.0237637218
34   
Iteration 10 Energy -45.17742223
C        5.1385653146   -1.1697470864   -0.7770587820
C        4.8071801525    0.0250130683   -0.3112770477
C        3.4648883755    0.3700219195    0.2122400030
O        3.1568227362    1.4862303642    0.5633911234
O        2.6470392484   -0.6781508035    0.2649402804
C        1.3173435488   -0.4357697342    0.7276673204
Si       0.1612407216    0.1396448259   -0.7021004101
C        0.1294417158   -1.2442413981   -2.0109757246
C        0.6782105255    1.8167746175   -1.4219896222
O       -1.3160783490    0.3093066122   -0.0506162123
Si      -2.6805669466    0.0311123332    0.8147346040
C       -2.2755505790    0.3742249219    2.6430021728
C       -3.9878359135    1.2309934771    0.1284595775
C       -3.1814086721   -1.7877392802    0.5482312692
H        6.1253370382   -1.3762111997   -1.1566673258
H        4.4286854788   -1.9795441247   -0.7908070699
H        5.5053643238    0.8496933280   -0.2934298711
H        0.9847186351   -1.3845013824    1.1501776714
H        1.3478480905    0.3066092694    1.5291136719
H        1.1092737833   -1.4003936334   -2.4524570580
H       -0.5593935671   -1.0026121727   -2.8145893698
H       -0.1913637085   -2.1881932619   -1.5791566056
H       -0.0608009289    2.1844405074   -2.1281093000
H        0.7916879821    2.5601017270   -0.6386172717
H        1.6301280611    1.7485381866   -1.9395143058
H       -3.1510251547    0.2768738390    3.2770847168
H       -1.5229785739   -0.3164015144    3.0121875069
H       -1.8853211208    1.3791390405    2.7718901235
H       -4.1689161255    1.0516419859   -0.9270704821
H       -3.6639827297    2.2620741237    0.2321090196
H       -4.9348556952    1.1281512072    0.6483280981
H       -3.3044093928   -2.0063084572   -0.5082806922
H       -2.4228423583   -2.4622880067    0.9345244975
H       -4.1164459166   -2.0267789777    1.0446354890
34   
Iteration 11 Energy -45.17745114
C        5.1480330998   -1.1539320002   -0.8133285257
C        4.8143806397    0.0306647903   -0.3240342447
C        3.4728291406    0.3601064848    0.2120856314
O        3.1576147318    1.4710218173    0.5746009107
O        2.6637080694   -0.6942744002    0.2587082365
C        1.3336777177   -0.4657124108    0.7277927120
Si       0.1709444027    0.1255207762   -0.6906869081
C        0.1433275049   -1.2334459915   -2.0252592514
C        0.6753431711    1.8160146889   -1.3878315882
O       -1.3033455981    0.2678589308   -0.0263905618
Si      -2.6841429382    0.0244486313    0.8216610193
C       -2.3067523205    0.4048785446    2.6482206787
C       -3.9732869402    1.2199768693    0.0939239617
C       -3.2032484534   -1.7931979743    0.5848096712
H        6.1336172677   -1.3503362812   -1.2014055186
H        4.4407775804   -1.9657979603   -0.8378167508
H        5.5078870150    0.8589253837   -0.2950222148
H        1.0073547395   -1.4218990178    1.1373590255
H        1.3614994012    0.2657439430    1.5392872498
H        1.1238204193   -1.3803947651   -2.4684680060
H       -0.5441754927   -0.9755686480   -2.8251895140
H       -0.1782224359   -2.1857835940   -1.6129702764
H       -0.0757373285    2.1974435050   -2.0735764258
H        0.8068357142    2.5447617450   -0.5937094253
H        1.6172495797    1.7554130175   -1.9250705180
H       -3.1943428024    0.3307584892    3.2685606891
H       -1.5678693253   -0.2842363647    3.0467364843
H       -1.9089598976    1.4088724536    2.7607070222
H       -4.1456597810    1.0195998039   -0.9592353438
H       -3.6443971187    2.2510304657    0.1801632867
H       -4.9266234004    1.1341441620    0.6060343581
H       -3.3134347126   -2.0318078886   -0.4688181935
H       -2.4598360602   -2.4696203537    0.9964922664
H       -4.1488655892   -2.0094725303    1.0716700582
34   
Iteration 12 Energy -45.17747293
C        5.1597285964   -1.1352657348   -0.8512517846
C        4.8237786147    0.0371678414   -0.3350831584
C        3.4818714727    0.3496268154    0.2111182056
O        3.1618198877    1.4535913611    0.5906323507
O        2.6800943921   -0.7101881023    0.2468821462
C        1.3501392042   -0.4976179468    0.7263095735
Si       0.1797806908    0.1093188272   -0.6789026408
C        0.1571732452   -1.2240451003   -2.0391104872
C        0.6683155272    1.8145920752   -1.3515143411
O       -1.2908808011    0.2240816929   -0.0016013534
Si      -2.6873310525    0.0173926963    0.8286146366
C       -2.3390221352    0.4363887545    2.6524732914
C       -3.9551274851    1.2093595907    0.0573114512
C       -3.2279582170   -1.7978741052    0.6233595278
H        6.1444810259   -1.3197860283   -1.2470737083
H        4.4550767600   -1.9487844243   -0.8907264546
H        5.5137767857    0.8676793163   -0.2905230912
H        1.0322872701   -1.4622689108    1.1220030153
H        1.3782031219    0.2215925968    1.5484136706
H        1.1387971051   -1.3610233520   -2.4827668963
H       -0.5284951647   -0.9509368598   -2.8356641136
H       -0.1648211680   -2.1845603441   -1.6468596497
H       -0.0975099228    2.2092289474   -2.0129676384
H        0.8181342054    2.5272655416   -0.5462288963
H        1.5981339736    1.7653608301   -1.9108558809
H       -3.2393554482    0.3863500430    3.2565817842
H       -1.6156460149   -0.2504427746    3.0820114077
H       -1.9327874454    1.4386639237    2.7490996571
H       -4.1173936412    0.9870712264   -0.9929862072
H       -3.6178986405    2.2390410790    0.1249828582
H       -4.9155826821    1.1441843009    0.5593431786
H       -3.3262256815   -2.0581307918   -0.4263031902
H       -2.5015784134   -2.4764208080    1.0609795546
H       -4.1839779652   -1.9889078555    1.1003031778
34   
Iteration 13 Energy -45.17749274
C        5.1733049728   -1.1077044756   -0.9021297126
C        4.8344628219    0.0471265852   -0.3495628204
C        3.4936685773    0.3357657045    0.2122424828
O        3.1675394881    1.4292980370    0.6158939779
O        2.7010022209   -0.7310857667    0.2304872350
C        1.3721109996   -0.5398608380    0.7242365333
Si       0.1898866021    0.0866940434   -0.6616522254
C        0.1724488226   -1.2141017957   -2.0531494954
C        0.6565706658    1.8113886293   -1.3005771534
O       -1.2757966732    0.1659147067    0.0306987174
Si      -2.6919393859    0.0087275641    0.8359863374
C       -2.3777713279    0.4773910188    2.6539694028
C       -3.9285428865    1.1960824623    0.0074977771
C       -3.2605794137   -1.8022532725    0.6718498387
H        6.1566573829   -1.2755137797   -1.3085678178
H        4.4725693879   -1.9233339502   -0.9616258837
H        5.5202599462    0.8797770623   -0.2850915502
H        1.0659118083   -1.5155369104    1.1012498123
H        1.4018188169    0.1621554602    1.5607225616
H        1.1557155446   -1.3389742285   -2.4965283659
H       -0.5109212423   -0.9232310012   -2.8453761856
H       -0.1496596829   -2.1840312021   -1.6850733057
H       -0.1296929562    2.2220159325   -1.9274154041
H        0.8291961980    2.5019394873   -0.4807468133
H        1.5691568467    1.7805325721   -1.8888190536
H       -3.2928643405    0.4587248003    3.2372408443
H       -1.6753975563   -0.2063242830    3.1214890407
H       -1.9587728416    1.4761292056    2.7304888641
H       -4.0761121614    0.9449719442   -1.0384686652
H       -3.5766052597    2.2221666294    0.0504667517
H       -4.8985658655    1.1608083297    0.4937174934
H       -3.3439412769   -2.0912808087   -0.3715385079
H       -2.5561100695   -2.4814199086    1.1428554289
H       -4.2290081625   -1.9612536330    1.1352298556
34   
Iteration 14 Energy -45.17687526
C        5.2164312887   -1.0149625508   -1.0649034110
C        4.8666920433    0.0814579116   -0.3970456053
C        3.5296869300    0.2918000577    0.2137769287
O        3.1813697430    1.3492776561    0.6967581634
O        2.7685771249   -0.7992350592    0.1772615396
C        1.4444756314   -0.6796627806    0.7166518158
Si       0.2197444777    0.0113253213   -0.6020685615
C        0.2147167507   -1.1820745966   -2.0941461284
C        0.6154434573    1.7990252230   -1.1264740370
O       -1.2286537005   -0.0281810528    0.1374200582
Si      -2.7083422037   -0.0192957631    0.8574641856
C       -2.4951171468    0.6120263166    2.6509128785
C       -3.8375630959    1.1516493797   -0.1583925950
C       -3.3674326584   -1.8140765072    0.8270955674
H        6.1950780886   -1.1264638911   -1.5057038077
H        4.5299446837   -1.8381352195   -1.1876777673
H        5.5380791439    0.9210504046   -0.2693798105
H        1.1751378881   -1.6907757501    1.0311682479
H        1.4774453854   -0.0355905533    1.6010921401
H        1.2022013498   -1.2689037714   -2.5386211920
H       -0.4631922829   -0.8337425522   -2.8698941687
H       -0.1067833910   -2.1812397543   -1.8028944178
H       -0.2365242822    2.2607420849   -1.6375534940
H        0.8621576327    2.4152198388   -0.2595605474
H        1.4703960624    1.8316719498   -1.8072656182
H       -3.4533324574    0.6978201891    3.1697658396
H       -1.8620650248   -0.0618312359    3.2366513268
H       -2.0299475020    1.5965298204    2.6598657282
H       -3.9373131058    0.8053284598   -1.1883719404
H       -3.4332608477    2.1632999157   -0.1968228887
H       -4.8380669492    1.2170874124    0.2737020474
H       -3.4023069884   -2.1974717123   -0.1939927667
H       -2.7332005687   -2.4904575668    1.4066977222
H       -4.3744754761   -1.8715073031    1.2444845627
34   
Iteration 15 Energy -45.17758701
C        5.2069572078   -0.9921971802   -1.0929117134
C        4.8629124234    0.0863757538   -0.4044722739
C        3.5315514026    0.2853081646    0.2165494533
O        3.1840151891    1.3303278147    0.7195420426
O        2.7728619590   -0.8046225261    0.1679947938
C        1.4536031478   -0.6977282357    0.7177198350
Si       0.2193880894   -0.0001571168   -0.5845669978
C        0.2121237119   -1.1727941997   -2.0864341583
C        0.6044589805    1.7903499329   -1.0890337758
O       -1.2217077903   -0.0582683154    0.1583977426
Si      -2.7003420255   -0.0257704279    0.8547987428
C       -2.4986802388    0.6324931008    2.6305334709
C       -3.8073602463    1.1284339080   -0.1845711976
C       -3.3819333445   -1.8056940677    0.8443049989
H        6.1816400880   -1.0928938970   -1.5406725989
H        4.5197633989   -1.8108082828   -1.2265106951
H        5.5357804528    0.9207178405   -0.2659608951
H        1.1914148902   -1.7108041266    1.0221877552
H        1.4931145506   -0.0637179793    1.6061944733
H        1.1998489111   -1.2561530380   -2.5295787183
H       -0.4645181580   -0.8144631188   -2.8567160213
H       -0.1113905387   -2.1720649746   -1.8083645693
H       -0.2546167909    2.2507168538   -1.5711285867
H        0.8700557874    2.3948158454   -0.2261839085
H        1.4403465014    1.8378417585   -1.7822505090
H       -3.4586387297    0.7308236547    3.1292216493
H       -1.8816493064   -0.0294212377    3.2325062992
H       -2.0252914016    1.6100196789    2.6325171486
H       -3.9054149207    0.7664015189   -1.2043089588
H       -3.3921411811    2.1310012035   -0.2339468366
H       -4.8065203191    1.2078243202    0.2337626921
H       -3.4166529748   -2.2054496606   -0.1653841867
H       -2.7640064572   -2.4741519522    1.4377835010
H       -4.3889722681   -1.8445866906    1.2489819972
34   